/*--------------------------------*- C++ -*----------------------------------*\
| =========                 |                                                 |
| \\      /  F ield         | OpenFOAM: The Open Source CFD Toolbox           |
|  \\    /   O peration     | Version:  5                                     |
|   \\  /    A nd           | Web:      www.OpenFOAM.org                      |
|    \\/     M anipulation  |                                                 |
\*---------------------------------------------------------------------------*/
FoamFile
{
    version     2.0;
    format      ascii;
    class       volScalarField;
    object      T;
}
// * * * * * * * * * * * * * * * * * * * * * * * * * * * * * * * * * * * * * //

dimensions      [0 0 0 1 0 0 0];

internalField   uniform 273;

boundaryField
{
    top
    {
        type            zeroGradient;
    }

    bottom
    {
        type            zeroGradient;
    }

    left
    {
        type            fixedValue;
        value           uniform 273;
    }
    right
    {
        type            fixedValue;
        value           uniform 573;
    }
    front
    {
        type          compressible::turbulentTemperatureRadCoupledMixed;
            Tnbr            T;
            kappaMethod     solidThermo;
            qrNbr           qr;
            qr              none;
            value           uniform 300;
    }
    back
    {
        type            symmetryPlane;
    }
}

// ************************************************************************* //
